LAMMPS input file

500 atoms
375 bonds
250 angles
0 dihedrals
0 impropers

7 atom types
1 bond types
1 angle types
1 dihedral types

0.000 0 xlo xhi
0.000 0 ylo yhi
0.000 0 zlo zhi

Masses

1 14.007
2 1.008
3 15.999
4 1
5 56.108
6 57.116
7 57.116

Nonbond Coeffs

1 -0.47 -0.2
2 0.417 -0.046
3 -0.834 -0.1521
4 0 0
5 0 0.3908
6 0 0.948
7 0 0

Bond Coeffs

1 1.5 6000

Angle Coeffs

1 2.87979 1000

Dihedral Coeffs

1 3.14159 9.2789 12.156 -13.12

Atoms

1 1 6  1.31836 6.73427 2.42425 
2 1 6  1.69959 4.22576 0.288977 
3 1 6  4.96372 2.57529 0.140402 
4 1 6  -0.40195 3.21338 -0.91832 
5 2 6  1.85752 7.126 6.56008 
6 2 6  2.48997 8.08833 5.21194 
7 2 6  3.11139 10.5061 4.92187 
8 2 6  4.59983 11.542 4.09988 
9 3 6  4.41141 3.98614 6.09345 
10 3 6  5.41852 5.75744 6.32357 
11 3 6  6.6088 4.15733 7.65145 
12 3 6  9.87456 6.13459 7.47139 
13 4 6  3.69384 3.86771 4.57036 
14 4 6  3.88224 3.33396 2.6739 
15 4 6  3.89445 1.23333 1.90977 
16 4 6  2.1638 -1.27853 1.78343 
17 5 6  0.864413 -1.00524 1.50717 
18 5 6  3.55021 0.736953 2.55263 
19 5 6  3.21843 -1.68799 5.21618 
20 5 6  2.37114 0.775152 6.83931 
21 6 6  3.09693 2.22364 6.15542 
22 6 6  1.56419 -0.161621 4.75508 
23 6 6  0.771118 -1.17172 3.26155 
24 6 6  2.38757 0.545284 4.08148 
25 7 6  3.09631 3.18672 1.48606 
26 7 6  -0.430216 4.15975 2.18918 
27 7 6  -1.28231 3.27137 2.05775 
28 7 6  -1.60434 2.36867 3.33278 
29 8 6  6.39835 5.45495 4.623 
30 8 6  5.29989 5.47391 4.32531 
31 8 6  4.1783 5.31811 4.90561 
32 8 6  5.36418 6.34161 4.52777 
33 9 6  5.18698 5.38218 3.14821 
34 9 6  7.18333 6.31287 3.01377 
35 9 6  8.76329 5.6596 1.00554 
36 9 6  8.66535 5.92768 0.796184 
37 10 6  6.39227 3.45687 1.55005 
38 10 6  8.40126 3.81242 2.58529 
39 10 6  7.91335 2.99203 0.293419 
40 10 6  6.8924 2.18609 -1.61513 
41 11 6  4.8817 4.76783 2.74625 
42 11 6  4.04953 8.18814 3.07153 
43 11 6  3.65552 7.95451 4.30246 
44 11 6  4.20819 6.8353 4.93208 
45 12 6  5.77393 -2.42459 4.05684 
46 12 6  7.61469 -1.78174 1.73857 
47 12 6  7.48064 -3.25065 1.25105 
48 12 6  5.27499 -4.03923 0.91642 
49 13 6  -0.780094 1.47124 7.0385 
50 13 6  -1.76344 1.95063 4.81155 
51 13 6  -2.20187 4.24105 5.35666 
52 13 6  0.114437 3.51595 1.05444 
53 14 6  5.00762 7.02064 8.07109 
54 14 6  5.21523 5.85885 8.58403 
55 14 6  5.30238 2.87624 6.61344 
56 14 6  2.80994 3.7684 6.15445 
57 15 6  2.454 2.48167 1.37285 
58 15 6  1.73483 0.364762 5.02242 
59 15 6  2.20262 1.97278 3.21982 
60 15 6  0.321259 0.342321 3.54069 
61 16 6  6.55207 0.682809 2.45128 
62 16 6  4.96642 0.872516 2.87508 
63 16 6  3.88927 2.59324 6.43479 
64 16 6  4.92602 0.128493 6.51372 
65 17 6  3.23279 2.65487 4.61474 
66 17 6  4.01035 3.1088 3.91914 
67 17 6  5.10035 2.03432 3.93561 
68 17 6  6.61821 1.57776 4.78793 
69 18 6  -2.38968 4.93681 6.19853 
70 18 6  -0.00111255 3.79468 6.85764 
71 18 6  1.8924 3.95145 6.77677 
72 18 6  3.20909 4.61071 3.92195 
73 19 6  5.59781 3.7773 2.19367 
74 19 6  7.01253 3.47283 4.88103 
75 19 6  8.72626 4.64168 4.10085 
76 19 6  7.37143 2.51391 3.97531 
77 20 6  1.98956 2.24011 4.78314 
78 20 6  0.741074 0.534659 5.46842 
79 20 6  -0.202982 5.01366 4.46064 
80 20 6  1.82236 2.96623 2.76524 
81 21 6  0.549272 6.94329 6.3832 
82 21 6  -2.91234 5.59678 7.093 
83 21 6  -2.75178 5.03206 6.42978 
84 21 6  -4.50184 4.30677 4.11847 
85 22 6  4.06826 3.35881 3.28716 
86 22 6  4.89803 2.14429 -0.253955 
87 22 6  4.79854 1.84105 -1.30726 
88 22 6  2.41161 1.82513 1.25492 
89 23 6  -1.06008 7.82022 5.07628 
90 23 6  -1.30088 6.40535 5.5845 
91 23 6  -0.221535 6.64512 5.72722 
92 23 6  0.330857 7.30168 5.90531 
93 24 6  3.63877 3.86134 5.24628 
94 24 6  4.12693 2.73647 5.67372 
95 24 6  5.24815 3.16712 7.50748 
96 24 6  4.60945 5.81846 8.37944 
97 25 6  4.46037 4.80315 0.898369 
98 25 6  4.09192 3.40732 1.16997 
99 25 6  3.56192 2.99011 2.46595 
100 25 6  4.42124 4.2281 3.83059 
101 26 6  3.17307 1.76252 -0.233758 
102 26 6  1.98579 3.86833 0.119238 
103 26 6  1.55123 4.90355 2.17047 
104 26 6  3.98801 7.36638 3.4556 
105 27 6  1.9296 -0.0506208 5.28364 
106 27 6  0.369572 0.914569 6.74662 
107 27 6  1.36158 2.067 8.65871 
108 27 6  3.09938 0.801618 9.41623 
109 28 6  -0.177574 0.0906527 4.97984 
110 28 6  2.30894 0.491812 3.54692 
111 28 6  0.574378 -0.457279 2.83515 
112 28 6  1.10306 -0.457456 1.62802 
113 29 6  2.35524 9.01171 0.534072 
114 29 6  1.35099 8.04799 -1.42621 
115 29 6  -0.543354 9.68257 -3.08015 
116 29 6  -2.36979 10.278 -5.43799 
117 30 6  3.28381 1.23909 2.84239 
118 30 6  2.55383 2.47324 5.3615 
119 30 6  3.28616 0.113715 7.00429 
120 30 6  3.88012 -0.0794212 7.62529 
121 31 6  4.8774 1.92445 2.40957 
122 31 6  7.3914 1.68729 3.29125 
123 31 6  8.73039 1.81946 1.26955 
124 31 6  8.9547 1.68146 -1.12053 
125 32 6  8.17014 3.60105 5.76598 
126 32 6  5.60287 5.39569 7.02505 
127 32 6  6.96826 7.81038 7.32379 
128 32 6  8.47055 8.69564 7.73345 
129 33 6  5.3604 2.91388 3.61384 
130 33 6  5.93073 0.989946 3.0726 
131 33 6  5.89332 0.759955 2.951 
132 33 6  6.6121 -0.685983 2.27464 
133 34 6  0.559417 2.04397 1.67325 
134 34 6  -0.157908 2.9539 -0.0762617 
135 34 6  2.17614 1.35 -1.61299 
136 34 6  4.46725 -0.579235 -1.43748 
137 35 6  5.49324 5.32261 -0.163553 
138 35 6  5.14535 6.85392 3.50422 
139 35 6  6.64554 6.37498 6.85046 
140 35 6  5.4629 10.7306 4.72069 
141 36 6  3.30489 4.5218 2.86219 
142 36 6  1.62647 5.30673 2.70991 
143 36 6  3.79123 6.30731 2.41536 
144 36 6  4.44861 5.84638 2.5007 
145 37 6  -0.708864 3.44931 1.56616 
146 37 6  0.569813 4.30144 3.57473 
147 37 6  4.29015 2.4304 2.53774 
148 37 6  2.82652 4.49856 2.13728 
149 38 6  2.99403 3.56374 3.56514 
150 38 6  3.67676 4.23832 1.04311 
151 38 6  4.22579 5.34265 2.96126 
152 38 6  4.18601 5.6003 3.35325 
153 39 6  1.06645 2.43565 6.94607 
154 39 6  1.07054 6.95566 3.53441 
155 39 6  -0.580641 6.95887 1.31578 
156 39 6  1.91963 6.86595 3.12441 
157 40 6  -2.31856 3.31081 -0.0820577 
158 40 6  -3.6165 4.56123 -1.51194 
159 40 6  -3.24168 4.50598 -0.0466598 
160 40 6  -1.76628 5.61972 0.244273 
161 41 6  -0.683585 -0.918518 3.37626 
162 41 6  -0.406298 -0.434631 3.93025 
163 41 6  0.723545 -1.16757 4.64749 
164 41 6  -0.949486 -2.84247 4.27701 
165 42 6  1.55827 4.27994 3.19754 
166 42 6  2.58935 3.43511 3.7441 
167 42 6  4.25791 5.27713 4.4303 
168 42 6  3.14379 3.94538 4.93572 
169 43 6  1.63698 0.816349 1.63456 
170 43 6  0.980565 2.52839 2.72994 
171 43 6  -0.629991 0.770338 2.94414 
172 43 6  -0.0738332 -0.0628094 4.02599 
173 44 6  5.7023 0.865674 1.90053 
174 44 6  5.08776 1.74624 0.437171 
175 44 6  4.79093 2.83823 1.01861 
176 44 6  4.17871 4.96265 2.73927 
177 45 6  0.882733 7.78029 6.40881 
178 45 6  -1.38173 3.09255 6.31972 
179 45 6  -2.88876 1.15462 5.76921 
180 45 6  -0.25811 1.0727 4.15617 
181 46 6  1.91889 3.53094 0.444277 
182 46 6  2.48596 5.21284 -2.1158 
183 46 6  2.04348 6.25545 -1.86177 
184 46 6  4.18345 7.27267 -2.24243 
185 47 6  3.08842 -1.30389 8.70964 
186 47 6  4.95136 4.92739 6.54229 
187 47 6  3.93875 3.55793 6.68908 
188 47 6  4.86067 5.74225 6.08269 
189 48 6  2.36535 1.24325 1.84751 
190 48 6  3.18883 1.61544 2.4726 
191 48 6  3.00374 1.56012 3.9489 
192 48 6  0.854897 0.0965047 5.0344 
193 49 6  6.65637 1.73927 0.325438 
194 49 6  4.58883 1.30387 -1.14783 
195 49 6  4.79053 3.19062 -3.05898 
196 49 6  4.40147 5.59057 -1.12221 
197 50 6  1.5289 0.313281 3.30815 
198 50 6  0.065221 -2.07686 2.61429 
199 50 6  1.25279 0.540472 3.04301 
200 50 6  2.12762 -0.948544 2.29401 
201 51 6  -0.334436 0.734201 0.0902871 
202 51 6  0.219348 1.6243 2.17451 
203 51 6  -0.947661 1.10256 3.5131 
204 51 6  -0.816084 0.694165 5.08455 
205 52 6  2.93631 5.19172 1.38224 
206 52 6  5.54428 5.87404 0.929517 
207 52 6  3.75698 7.49442 0.175061 
208 52 6  3.59647 8.15219 -2.50551 
209 53 6  3.50713 4.74487 1.98587 
210 53 6  2.84015 3.79684 1.60794 
211 53 6  1.79479 3.02768 5.78553 
212 53 6  2.78426 4.9919 7.23767 
213 54 6  5.56321 3.29249 3.24832 
214 54 6  5.98186 1.41521 2.9099 
215 54 6  4.63268 1.59442 3.2949 
216 54 6  8.11465 1.16645 2.50849 
217 55 6  4.90234 7.83346 0.734632 
218 55 6  5.84384 8.36412 0.0597542 
219 55 6  7.08947 8.10583 2.70849 
220 55 6  8.04746 10.0081 1.11421 
221 56 6  2.15166 -0.579134 4.45512 
222 56 6  0.620037 -1.91377 3.2812 
223 56 6  -0.233835 -0.664291 1.72726 
224 56 6  2.07298 0.061178 1.43354 
225 57 6  5.3838 2.54593 2.28415 
226 57 6  5.80553 4.07886 -1.84349 
227 57 6  5.26146 5.94909 2.38497 
228 57 6  7.63791 4.63405 3.17152 
229 58 6  7.22331 3.42057 2.82363 
230 58 6  2.39151 1.33497 3.25849 
231 58 6  4.5765 2.0166 0.975841 
232 58 6  4.45975 1.85069 1.18685 
233 59 6  4.23088 0.489621 3.79759 
234 59 6  5.16797 1.32096 2.99312 
235 59 6  4.50863 1.87079 3.39612 
236 59 6  3.39357 0.725258 5.70241 
237 60 6  5.25912 5.04573 1.12851 
238 60 6  3.14102 3.87129 3.02663 
239 60 6  4.48337 2.49068 1.41774 
240 60 6  5.25037 3.90073 -0.238893 
241 61 6  4.07469 7.35623 2.00293 
242 61 6  3.20178 7.63079 4.59577 
243 61 6  1.62444 9.34713 4.7677 
244 61 6  0.65778 7.58147 5.62342 
245 62 6  2.07889 2.76425 0.867007 
246 62 6  3.23072 3.55793 2.89639 
247 62 6  4.38561 1.92635 4.3556 
248 62 6  3.64898 2.99738 6.10774 
249 63 6  1.9867 5.73484 3.16661 
250 63 6  3.77963 3.52792 4.88319 
251 63 6  3.89905 4.16815 7.89482 
252 63 6  4.69301 6.75851 7.52468 
253 64 6  1.86228 5.98956 1.26373 
254 64 6  2.0253 6.7666 0.283568 
255 64 6  4.07596 6.78832 -0.937045 
256 64 6  -0.974825 8.33757 -2.32001 
257 65 6  3.4008 3.81833 2.35265 
258 65 6  7.83674 5.97546 2.53305 
259 65 6  9.11699 7.54359 1.1287 
260 65 6  9.0486 6.91382 0.58269 
261 66 6  -1.78783 1.86148 1.93654 
262 66 6  -2.31104 1.01766 0.292117 
263 66 6  -1.69181 0.244842 -0.670754 
264 66 6  -1.52789 -0.994355 0.663403 
265 67 6  3.76997 5.88226 5.28683 
266 67 6  2.05778 10.2336 5.06022 
267 67 6  2.53835 10.2412 2.83747 
268 67 6  4.38426 12.831 4.7485 
269 68 6  2.66588 5.01559 2.14975 
270 68 6  2.70334 8.32124 0.828514 
271 68 6  5.3596 8.4485 -0.291035 
272 68 6  3.18248 8.58105 -1.95523 
273 69 6  5.32499 1.89963 5.28476 
274 69 6  6.24437 4.27494 5.27885 
275 69 6  6.59137 6.95866 -0.121384 
276 69 6  7.44765 4.69226 1.27783 
277 70 6  6.95932 3.68376 0.0892566 
278 70 6  5.01007 2.28201 -2.28063 
279 70 6  4.6068 4.80468 -1.6255 
280 70 6  4.47463 4.4028 -0.026692 
281 71 6  -1.19184 1.3673 3.92446 
282 71 6  1.32555 0.946167 5.418 
283 71 6  2.82112 -0.566595 4.80504 
284 71 6  3.5251 -0.545965 5.98451 
285 72 6  -0.966005 3.0852 5.64272 
286 72 6  3.0228 1.70479 6.09945 
287 72 6  0.878858 3.4203 8.47054 
288 72 6  -0.192682 5.45067 3.8577 
289 73 6  5.70599 4.22296 6.86897 
290 73 6  7.16984 4.47574 3.87791 
291 73 6  8.65928 2.92553 2.91621 
292 73 6  6.09985 2.86374 4.78205 
293 74 6  5.61141 1.92799 4.63346 
294 74 6  5.34046 1.61634 2.3158 
295 74 6  6.94879 2.96666 1.83017 
296 74 6  8.98176 1.5298 2.30905 
297 75 6  0.727534 5.94929 2.40817 
298 75 6  -0.350478 6.1969 1.18048 
299 75 6  -1.53573 10.7618 3.73765 
300 75 6  -2.47414 5.9999 3.00567 
301 76 6  -0.486652 1.99189 5.04102 
302 76 6  -0.0345513 1.74505 3.2537 
303 76 6  -2.67264 0.795085 2.54351 
304 76 6  -0.805037 -3.72365 2.95743 
305 77 6  6.41774 5.26749 5.48205 
306 77 6  7.37939 3.5421 2.7999 
307 77 6  8.83941 3.80576 3.40202 
308 77 6  9.69469 8.23822 3.44604 
309 78 6  6.83704 4.88262 4.15517 
310 78 6  7.05709 3.50797 0.9231 
311 78 6  6.30988 4.76976 -0.736503 
312 78 6  5.4802 2.779 -2.42793 
313 79 6  5.14795 2.4892 2.37835 
314 79 6  5.24117 2.64663 2.72833 
315 79 6  4.77437 1.87291 2.67139 
316 79 6  5.11376 1.68165 1.37568 
317 80 6  3.99916 5.81398 0.910334 
318 80 6  5.62654 4.40359 0.312208 
319 80 6  3.95486 4.38673 -0.134134 
320 80 6  4.22521 3.51868 -1.67309 
321 81 6  4.64708 2.82589 3.83691 
322 81 6  3.07315 2.49295 2.7621 
323 81 6  2.67969 1.76647 2.85027 
324 81 6  -1.12825 2.95024 1.48054 
325 82 6  5.15037 0.133451 -0.706028 
326 82 6  4.69416 1.9852 1.7851 
327 82 6  3.43988 -0.139391 3.39019 
328 82 6  2.75504 -0.323551 3.34156 
329 83 6  6.57563 3.95012 -1.57997 
330 83 6  6.47233 2.44474 0.763292 
331 83 6  4.91619 2.56767 2.14845 
332 83 6  3.9407 0.997545 0.67439 
333 84 6  3.01586 6.4027 1.82593 
334 84 6  5.44928 5.98891 0.663252 
335 84 6  6.30744 7.37018 2.58888 
336 84 6  5.62284 8.63606 2.44752 
337 85 6  1.4261 1.34272 -0.877419 
338 85 6  3.4939 1.66876 -1.23073 
339 85 6  3.31471 3.30384 -1.21745 
340 85 6  5.77828 2.73465 1.11353 
341 86 6  4.19102 4.26883 6.04368 
342 86 6  1.98989 2.93819 4.5349 
343 86 6  2.32237 3.47141 5.11673 
344 86 6  0.891006 3.38711 6.63229 
345 87 6  3.68711 5.16306 3.08968 
346 87 6  3.1158 3.94228 1.18271 
347 87 6  2.91418 6.47446 3.22061 
348 87 6  4.09096 2.73357 1.32011 
349 88 6  2.51362 5.4761 4.46595 
350 88 6  4.54112 5.85883 5.32745 
351 88 6  4.18558 8.15788 4.88221 
352 88 6  5.64694 4.81542 4.12164 
353 89 6  2.3762 0.98923 -1.06658 
354 89 6  0.765077 0.641362 1.40262 
355 89 6  1.42129 0.772372 2.54164 
356 89 6  1.89116 0.0591929 2.47203 
357 90 6  7.03918 -1.79776 6.3493 
358 90 6  7.82257 1.67775 6.21922 
359 90 6  9.47563 2.25702 7.81428 
360 90 6  9.36817 2.67149 8.05326 
361 91 6  7.02894 1.73197 2.04227 
362 91 6  4.03613 0.844966 3.20143 
363 91 6  2.27842 1.31787 4.89591 
364 91 6  0.898188 -0.923875 4.44206 
365 92 6  1.02773 2.91975 6.50601 
366 92 6  -1.19806 1.04694 6.47232 
367 92 6  0.314022 1.07628 4.76785 
368 92 6  1.47163 2.67577 6.49604 
369 93 6  3.76462 1.92016 5.56833 
370 93 6  2.38306 1.92144 5.0467 
371 93 6  2.10269 2.45834 5.90104 
372 93 6  1.95043 3.4376 4.35261 
373 94 6  1.01754 0.483154 6.40041 
374 94 6  3.08529 0.448205 2.70652 
375 94 6  1.42877 -0.337683 2.79291 
376 94 6  1.47866 0.00271294 5.11216 
377 95 6  -0.192774 4.41711 1.53592 
378 95 6  0.194497 2.42079 3.36976 
379 95 6  1.29081 1.69958 1.48665 
380 95 6  1.27356 0.130722 3.68045 
381 96 6  0.320909 3.44198 7.70931 
382 96 6  2.20122 4.85318 7.03011 
383 96 6  -0.0216847 6.39787 8.21072 
384 96 6  0.598154 7.1166 7.09783 
385 97 6  5.8983 4.61434 5.7234 
386 97 6  5.13539 3.07555 6.42926 
387 97 6  1.60971 2.64943 7.69193 
388 97 6  3.64458 -0.94969 8.72753 
389 98 6  4.09785 2.51504 2.2435 
390 98 6  2.05431 0.499986 1.85887 
391 98 6  3.98819 -0.649117 2.94199 
392 98 6  5.60562 2.81854 1.64215 
393 99 6  2.2884 1.73454 0.0418784 
394 99 6  3.13828 -0.757487 0.861395 
395 99 6  3.56337 -0.749633 1.89137 
396 99 6  5.20923 -1.69405 3.49675 
397 100 6  4.22979 5.97459 5.7357 
398 100 6  5.26638 6.81592 4.94959 
399 100 6  5.47081 8.577 4.63693 
400 100 6  4.97316 11.5686 4.85369 
401 101 6  5.78573 4.75157 -0.665888 
402 101 6  5.31478 4.7597 -3.26694 
403 101 6  6.25383 5.08621 -4.41385 
404 101 6  4.40904 4.07333 -2.87197 
405 102 6  0.875396 4.28343 2.62073 
406 102 6  -0.0228584 3.7938 3.28514 
407 102 6  0.988505 4.35925 0.998828 
408 102 6  2.99074 3.2131 2.7799 
409 103 6  7.48979 -0.120079 -0.766446 
410 103 6  5.40665 2.25863 -0.368172 
411 103 6  6.27678 4.69467 0.109536 
412 103 6  5.65904 2.64895 -1.72544 
413 104 6  0.686758 7.15621 3.73446 
414 104 6  -0.105083 4.58198 2.67658 
415 104 6  2.14353 5.02223 8.37372 
416 104 6  2.04987 5.79641 5.75235 
417 105 6  4.78889 3.53061 4.06495 
418 105 6  4.4585 3.40729 5.08705 
419 105 6  2.67697 2.93181 3.8425 
420 105 6  3.50935 2.74721 -0.141644 
421 106 6  3.1738 0.333769 1.82475 
422 106 6  4.67429 -1.45118 0.190816 
423 106 6  1.54407 -2.11185 0.843964 
424 106 6  4.21146 -0.627252 -0.50278 
425 107 6  3.62675 4.85892 0.537389 
426 107 6  3.39655 4.76787 -0.651687 
427 107 6  2.19733 2.37826 -1.01392 
428 107 6  2.7907 0.390487 0.674094 
429 108 6  1.6326 3.8564 3.97812 
430 108 6  2.76871 2.96811 5.06144 
431 108 6  3.92558 4.23955 4.75122 
432 108 6  5.35478 4.0331 3.73891 
433 109 6  4.59076 4.85328 4.46123 
434 109 6  7.05615 5.38037 5.96417 
435 109 6  8.09452 4.65102 6.28859 
436 109 6  7.94589 6.21568 4.61976 
437 110 6  6.35723 7.58264 2.61775 
438 110 6  10.5456 6.94611 3.60581 
439 110 6  8.45347 8.59423 4.43967 
440 110 6  6.08466 7.15267 4.56571 
441 111 6  3.87364 2.01827 3.10667 
442 111 6  0.824961 3.00547 3.47319 
443 111 6  -1.0547 2.71167 1.88058 
444 111 6  4.92721 2.84688 1.80525 
445 112 6  0.716509 4.07988 1.82707 
446 112 6  0.466602 3.6863 4.15394 
447 112 6  2.39249 4.12701 1.45193 
448 112 6  2.55609 4.4314 2.11246 
449 113 6  4.82565 4.18588 5.48612 
450 113 6  4.06746 2.9581 3.36462 
451 113 6  1.87128 1.62909 2.64586 
452 113 6  3.03289 3.24305 2.53021 
453 114 6  1.35142 2.13349 0.438469 
454 114 6  0.958503 0.653259 2.21084 
455 114 6  1.90405 3.00373 3.63302 
456 114 6  1.1706 3.62167 4.36341 
457 115 6  4.73628 4.18144 4.13233 
458 115 6  2.69722 5.87174 4.9306 
459 115 6  0.296645 5.47101 5.25939 
460 115 6  1.48595 4.15066 5.55625 
461 116 6  1.03313 5.93536 -1.1573 
462 116 6  2.25549 5.76195 1.22863 
463 116 6  2.10912 6.1177 1.36516 
464 116 6  2.43261 9.54647 0.872613 
465 117 6  9.02555 3.33873 2.13267 
466 117 6  9.78017 3.59415 -1.30115 
467 117 6  8.55462 5.50914 -1.2586 
468 117 6  6.59405 3.73658 -2.85273 
469 118 6  4.33722 -0.227971 7.50487 
470 118 6  5.61438 0.450711 8.61816 
471 118 6  7.53976 2.46436 8.89295 
472 118 6  9.34701 1.97088 9.24047 
473 119 6  2.32585 4.33696 7.63589 
474 119 6  3.9812 4.42142 8.45017 
475 119 6  4.32968 -1.34854 7.19511 
476 119 6  2.43575 -0.42388 4.54747 
477 120 6  5.85942 -1.47188 1.65608 
478 120 6  5.98595 -1.16259 1.00905 
479 120 6  6.04585 -1.75072 0.581186 
480 120 6  5.00612 -2.50918 -1.48163 
481 121 6  2.50237 2.83652 4.22169 
482 121 6  0.0335519 3.71824 4.58862 
483 121 6  0.877829 0.538141 4.6853 
484 121 6  -0.416191 2.44305 4.55791 
485 122 6  2.76922 5.01308 6.00911 
486 122 6  2.86318 2.29349 7.70015 
487 122 6  1.25011 0.824748 6.02059 
488 122 6  1.70021 0.782656 9.13207 
489 123 6  5.05871 -0.568204 5.97387 
490 123 6  4.94304 -1.3699 3.51427 
491 123 6  3.33998 -2.47168 5.49569 
492 123 6  3.7359 -1.95631 0.675609 
493 124 6  3.78798 5.26557 4.06117 
494 124 6  3.01582 7.69514 5.4033 
495 124 6  3.61581 6.31774 7.66951 
496 124 6  5.27942 9.40429 6.51815 
497 125 6  2.00872 4.92357 5.22961 
498 125 6  -1.20958 3.49406 5.45185 
499 125 6  1.22266 5.43387 7.10032 
500 125 6  -0.603131 3.50191 8.47261 

Velocities

1 -0.129381 -0.0144845 -0.121026 
2 -0.0858291 0.124467 0.165397 
3 0.323592 0.119138 -0.0479603 
4 -0.175856 -0.017993 0.00119006 
5 -0.224013 -0.0290859 -0.0431521 
6 -0.0818725 -0.0138528 -0.207023 
7 0.0750642 0.194285 -0.106203 
8 0.162054 -0.0259284 -0.0398642 
9 -0.102561 -0.11748 0.0184038 
10 -0.0313708 0.00382104 -0.0852434 
11 -0.0715304 -0.036377 0.16127 
12 0.15724 0.0689228 -0.0851075 
13 -0.00301966 -0.0194044 0.0697979 
14 0.126016 0.102619 0.0685601 
15 0.0217382 -0.163716 0.0201945 
16 -0.0472351 -0.0892008 -0.0138126 
17 -0.151886 -0.114428 -0.255122 
18 0.0924361 -0.0187637 -0.0313558 
19 -0.0039396 0.0492899 0.103157 
20 0.0509291 -0.0128643 -0.0203611 
21 0.0964921 -0.037861 -0.128467 
22 0.236267 -0.169448 -0.0975556 
23 0.0230444 -0.191947 -0.214609 
24 -0.0152316 0.111174 -0.149629 
25 0.295386 -0.150077 0.100956 
26 0.00995833 0.0208206 0.156848 
27 0.0493081 0.0342262 0.0452146 
28 -0.0439131 -0.134375 0.243597 
29 0.0229995 -0.0372402 0.0285088 
30 0.128045 0.107034 0.0968336 
31 -0.0547869 0.0690242 0.0877186 
32 0.164745 0.00229213 -0.0523353 
33 -0.0719854 -0.106797 0.0504069 
34 0.102517 0.0479656 0.236805 
35 0.0134083 -0.086832 0.12479 
36 0.00105423 -0.0452766 0.000441215 
37 0.169471 0.120627 -0.014618 
38 0.0266083 0.0684268 -0.106942 
39 -0.00136617 -0.0698124 0.0443654 
40 -0.0211039 -0.0514017 -0.10474 
41 0.0887858 -0.16645 0.158322 
42 0.046134 0.164427 -0.0135491 
43 -0.112824 0.0560156 0.0316615 
44 -0.0539805 0.0720052 -0.029633 
45 0.117687 -0.217292 -0.0334288 
46 0.115038 -0.108737 0.0368728 
47 0.131188 -0.169453 -0.213289 
48 -0.0739905 -0.165308 -0.148124 
49 0.018033 -0.0806187 0.0801876 
50 0.00644319 0.00389939 0.0668847 
51 0.0162483 0.0349819 0.218948 
52 0.0415191 0.20862 -0.225098 
53 0.0738277 0.218243 0.00910001 
54 0.142121 0.215719 -0.0416654 
55 0.0998194 -0.0287906 0.0133486 
56 -0.124281 -0.0815871 -0.325875 
57 0.000732952 -0.123429 -0.180662 
58 0.0220461 -0.0398852 0.226161 
59 -0.118383 0.0127398 -0.121878 
60 -0.0974808 -0.0581644 -0.022206 
61 -0.017106 0.00748298 0.116352 
62 0.0233437 -0.161863 -0.0963933 
63 -0.187087 -0.0619988 0.13746 
64 -0.0656106 -0.0513708 0.00770393 
65 0.0972151 -0.0318143 -0.0418451 
66 0.0609938 0.0471435 0.112137 
67 0.0329626 -0.0497754 -0.0310212 
68 -0.0372497 0.0659518 0.0425234 
69 -0.2408 -0.0590759 -0.00372176 
70 -0.270654 0.0288614 0.0321511 
71 -0.0484312 -0.00922946 0.130302 
72 0.158051 0.0509774 -0.101247 
73 0.029765 -0.0963244 -0.155817 
74 0.053782 0.00888938 0.137589 
75 0.0872626 0.121423 0.101776 
76 -0.167274 -0.0142991 0.0595598 
77 0.0600922 0.063709 -0.140467 
78 -0.106039 -0.128862 -0.00330656 
79 0.102344 0.128948 -0.0892759 
80 -0.00744694 0.0400145 -0.117869 
81 0.111107 0.251936 0.0118482 
82 -0.0335196 0.0316807 0.0330258 
83 -0.0406661 -0.118826 0.0697399 
84 -0.0392508 -0.00235013 0.00541868 
85 -0.00652112 -0.0314124 0.0496814 
86 -0.122922 0.0258 -0.245169 
87 0.00389095 -0.171364 -0.133409 
88 0.117595 -0.0227016 -0.119869 
89 -0.180525 0.295972 -0.189969 
90 0.00764284 0.103137 -0.0711387 
91 -0.0928241 -0.208072 0.0335417 
92 0.043188 0.140006 0.151838 
93 0.122146 -0.0858679 0.0303941 
94 -0.0726094 -0.100324 -0.178508 
95 0.113031 -0.179686 -0.0242373 
96 0.132873 0.097506 -0.0346573 
97 -0.116691 0.0830093 -0.198407 
98 0.0363023 -0.0468566 -0.0468394 
99 -0.114421 -0.112674 -0.115039 
100 -0.105794 -0.232304 0.199362 
101 0.0472952 -0.245995 -0.205112 
102 -0.0551547 -0.202938 -0.101431 
103 0.0909579 -0.0401706 0.0505692 
104 0.0188175 -0.141836 0.0546748 
105 0.142686 -0.024058 -0.10842 
106 0.0771654 0.225845 0.21568 
107 -0.265781 0.0741683 0.0491223 
108 0.0654758 0.106132 0.0398008 
109 -0.0776204 -0.0711131 0.0759306 
110 0.0821835 -0.0535627 0.096544 
111 0.0868779 0.0753759 -0.0392627 
112 0.020219 -0.023337 -0.125693 
113 0.0963254 0.218502 -0.0913655 
114 0.0285536 0.00347065 -0.0320495 
115 -0.0324669 0.0864486 -0.185034 
116 -0.0214581 0.191154 -0.0929369 
117 -0.00866041 -0.0811563 -0.256447 
118 0.0064172 -0.0591819 -0.0085626 
119 -0.231302 0.0376221 -0.0030924 
120 -0.146957 0.0745194 0.145314 
121 -0.0395464 -0.0955432 -0.121985 
122 0.226519 -0.0201969 -0.109841 
123 0.0416045 0.17252 0.0862656 
124 0.168828 0.0396424 -0.128119 
125 -0.0259297 0.0474294 0.136871 
126 0.0851264 -0.130858 0.0166223 
127 -0.020102 -0.0625019 0.086493 
128 0.206908 0.201657 0.243023 
129 0.014103 0.062685 -0.145659 
130 0.0824761 -0.114324 -0.0888113 
131 0.0720607 0.123588 -0.148633 
132 -0.0374962 0.0135821 9.60404e-06 
133 -0.0916215 -0.0979576 -0.00226268 
134 -0.164815 -0.0526115 -0.112666 
135 0.160425 -0.135027 0.00465617 
136 0.000356215 -0.076946 -0.114911 
137 0.0247393 -0.0460611 -0.373459 
138 -0.00289539 -0.0231019 -0.00497105 
139 0.0724085 -0.0901941 0.0272016 
140 0.0990236 0.185253 -0.0756055 
141 0.0815424 -0.1412 0.0511743 
142 -0.0954941 -0.067429 0.0117794 
143 -0.154396 -0.0784155 0.0582803 
144 0.00395908 -0.18406 -0.00160128 
145 -0.0360083 -0.132348 0.0407388 
146 -0.14646 -0.0453325 -0.0595696 
147 0.236269 -0.21594 -0.0104586 
148 0.0972506 -0.0566425 0.0376489 
149 0.120799 -0.111452 0.119526 
150 0.209964 -0.160746 0.0692482 
151 0.00328962 -0.0544819 -0.0614233 
152 0.0537568 -0.127949 0.215446 
153 -0.0840223 -0.247603 0.218471 
154 -0.109182 0.157921 -0.109056 
155 -0.218571 0.0222825 -0.0866598 
156 0.0622807 0.084206 0.0558106 
157 -0.204925 0.0434555 0.03485 
158 -0.116452 0.118826 -0.110794 
159 -0.0455846 0.0901618 0.0474849 
160 -0.0403679 0.0490155 -0.00369937 
161 -0.126692 -0.161647 -0.0362846 
162 -0.0483434 -0.0415158 0.116362 
163 -0.000469121 0.0906927 0.151754 
164 -0.0890764 -0.0838827 0.0207934 
165 0.0214463 -0.0146544 0.100132 
166 0.142047 -0.0155796 -0.00288866 
167 -0.028179 -0.120187 -0.0169824 
168 -0.203842 -0.14169 -0.129661 
169 0.1051 -0.0133579 0.0293296 
170 0.131994 0.0502272 -0.0380159 
171 0.042719 -0.0352308 0.0988103 
172 -0.0518698 -0.203318 0.242457 
173 0.0583307 -0.114542 0.0225607 
174 -0.114061 -0.0883524 0.0373682 
175 0.0523348 0.0574702 -0.0360767 
176 0.0247346 0.127541 -0.0366752 
177 -0.00357166 0.340755 0.14623 
178 -0.0527277 -0.0767124 0.0046949 
179 -0.00131365 0.0177247 -0.183938 
180 -0.0622871 -0.109902 0.192967 
181 -0.0994736 -0.270782 0.105554 
182 -0.124961 -0.0997075 0.0295946 
183 0.0581959 0.132839 -0.0196343 
184 -0.0594249 0.0847725 -0.120884 
185 -0.0663304 -0.155829 0.170501 
186 0.0744926 0.18608 0.0111543 
187 0.0644552 0.0156063 0.0240586 
188 0.0427184 0.0954089 -0.0123345 
189 0.0386054 0.0340672 0.0936693 
190 0.0378452 0.149967 0.112814 
191 -0.0225466 -0.125021 0.179591 
192 0.0010589 -0.0512443 0.179463 
193 0.141423 -0.151772 -0.0278706 
194 0.02786 -0.0221842 -0.0795237 
195 0.0190221 0.069816 -0.136701 
196 -0.000941623 0.082843 -0.0265664 
197 0.00624023 0.0197669 -0.000686778 
198 -0.125108 0.0219003 -0.0532129 
199 0.133964 0.155075 -0.0275335 
200 0.0189188 -0.0323525 -0.227105 
201 -0.0012306 -0.00119957 -0.237435 
202 -0.00897534 0.0229814 -0.0398203 
203 -0.0644619 0.191542 0.133134 
204 -0.0198215 -0.0773004 0.191671 
205 -0.0952815 -0.0616556 0.0315742 
206 0.117904 0.0826527 0.0607757 
207 0.156891 0.0891801 -0.0152371 
208 -0.0711962 0.0611121 -0.0837094 
209 0.147455 -0.00119955 -0.0242131 
210 -0.126419 -0.0398732 -0.17032 
211 -0.0653174 -0.178464 0.119462 
212 0.174332 0.0348223 -0.0238599 
213 0.0810626 0.0464596 -0.0490603 
214 0.0649648 -0.0305603 0.163119 
215 -0.151071 -0.0699626 0.104188 
216 0.0907047 0.21667 0.161989 
217 -0.020586 -0.0663733 -0.172776 
218 0.0118083 -0.0672576 -0.0569542 
219 0.0719494 -0.0539337 0.117836 
220 -0.0392061 0.147571 0.0615643 
221 0.182771 -0.0154788 0.0502446 
222 -0.0898075 0.047898 -0.14854 
223 -0.0933051 -0.0495182 0.205439 
224 0.0501006 -0.0954948 -0.115237 
225 0.127244 -0.0281808 -0.0556961 
226 -0.143647 -0.14026 -0.31064 
227 -0.044727 -0.0542526 0.083476 
228 -0.0823143 -0.0280009 0.178856 
229 0.264103 0.0393296 0.0490536 
230 -0.0501797 -0.169673 -0.104719 
231 -0.000722411 0.0133155 -0.0579688 
232 -0.0197474 -0.138278 -0.213849 
233 0.0178654 -0.143031 0.0560482 
234 0.128496 -0.118474 -0.000678123 
235 0.151544 -0.109222 0.227542 
236 0.180612 0.0615134 0.0172299 
237 -0.0278648 0.0133251 0.107534 
238 0.0779615 0.0111074 -0.0107358 
239 -0.136723 -0.0490275 0.169441 
240 -0.108729 0.040405 -0.111933 
241 -0.0962999 0.0345937 -0.28289 
242 0.0223195 -0.104852 0.021035 
243 -0.077327 0.0593871 0.00631729 
244 -0.0507306 0.0922477 0.030663 
245 -0.10281 -0.0194243 -0.016419 
246 0.0220667 0.0342199 -0.0789514 
247 -0.00348865 0.13168 0.190386 
248 0.0192389 0.176842 0.124365 
249 0.183334 0.128233 -0.0474374 
250 0.040505 0.145477 -0.106385 
251 0.0204269 -0.0240892 0.177689 
252 0.0646763 0.0890694 0.101031 
253 -0.164042 0.110768 -0.0657076 
254 0.0576011 0.0791135 -0.0396178 
255 0.217281 -0.00622602 -0.0127153 
256 -0.105848 0.170568 -0.116417 
257 -0.31808 -0.0824474 -0.0102461 
258 0.231635 0.165318 0.0230398 
259 0.0692848 -0.198857 0.0859281 
260 0.0703614 -0.0826433 -0.0367579 
261 -0.210547 0.0901245 0.0659041 
262 -0.0856574 0.117798 -0.131017 
263 -0.193697 -0.0310569 -0.165851 
264 -0.138985 -0.075129 0.0233495 
265 -0.0186553 -0.0815598 0.0702456 
266 -0.0761629 0.18451 0.0135531 
267 0.0932351 0.173363 0.0527234 
268 -0.080676 0.394834 -0.0267803 
269 0.0133675 -0.185116 0.167214 
270 -0.188835 0.136202 0.010285 
271 -0.0175709 -0.0494863 0.00685348 
272 0.00714906 -0.0912733 -0.0456006 
273 -0.0268074 -0.0228708 0.0180301 
274 -0.0574139 -0.0442044 0.278967 
275 0.0442181 0.235807 -0.131924 
276 0.139371 0.0593252 0.0218609 
277 -0.0221545 -0.0517462 -0.0537083 
278 -0.0210235 0.194271 0.0518849 
279 -0.153234 0.0219513 -0.0805779 
280 -0.0637872 0.0116589 0.0980788 
281 -0.0835779 -0.181174 0.0989523 
282 -0.110363 -0.0189568 0.0120273 
283 0.0728396 0.0494642 -0.0608563 
284 0.0781606 0.0976804 0.0446729 
285 -0.145286 0.0882351 -0.103909 
286 0.0617737 0.092016 0.124131 
287 0.0852905 -0.0476265 0.0958767 
288 0.0109481 0.192879 -0.244696 
289 0.0163951 -0.095688 0.21328 
290 -0.0626585 0.0604467 -0.103905 
291 0.0637411 -0.171252 0.0419105 
292 0.00140747 -0.0767312 0.17749 
293 -0.052295 -0.236866 0.136386 
294 -0.070035 -0.209068 -0.0486304 
295 -0.0485227 -0.107156 -0.209193 
296 0.106714 -0.0488857 -0.00152859 
297 0.0643502 -0.00617101 -0.0199297 
298 0.037852 0.0247181 0.0442818 
299 -0.0765658 0.38395 0.11649 
300 -0.0747548 -0.142342 0.100273 
301 -0.162411 0.104724 0.0224786 
302 -0.130725 -0.0303784 -0.0328856 
303 -0.149284 0.0869046 0.125421 
304 -0.00711037 -0.187779 0.0597464 
305 0.0200524 -0.0861868 -0.0568401 
306 -0.0463294 0.0443722 -0.0383138 
307 0.152524 -0.239431 -0.00314597 
308 0.038193 0.180851 -0.0122906 
309 0.0972835 -0.150224 0.242479 
310 0.00675703 -0.0459261 -0.0214563 
311 0.0442825 -0.0488237 0.00955156 
312 0.0582089 0.0653999 0.0995687 
313 0.0649453 -0.0578629 -0.0989566 
314 0.113409 -0.0283828 -0.0070006 
315 0.0520143 0.0965603 -0.0244035 
316 -0.0909903 0.0193539 0.00436351 
317 0.146889 0.0955749 0.132641 
318 0.205959 0.0364221 -0.0314908 
319 -0.0514214 -0.0127978 -0.0374273 
320 -0.0254927 0.046135 0.0827142 
321 -0.0974776 0.0148321 -0.0240601 
322 -0.055468 -0.208853 0.0725492 
323 0.0410065 -0.0770436 0.0918611 
324 -0.280915 -0.00274536 -0.0224477 
325 0.0102413 0.125685 -0.103164 
326 0.0546878 -0.145827 -0.00564613 
327 0.0738625 0.154159 0.0258061 
328 0.0217426 -0.159868 0.143395 
329 0.278511 0.0942672 -0.164884 
330 0.24376 0.138294 0.0392954 
331 0.176317 0.0380325 0.175122 
332 0.0632555 0.0796344 0.0368724 
333 -0.0725567 0.0194772 0.0273368 
334 0.0331341 -0.222627 0.0157023 
335 0.114236 0.0390462 0.0475862 
336 -0.105983 0.0403541 0.0711878 
337 -0.193674 -0.0621339 -0.0622623 